REMARK   4 XXXX COMPLIES WITH FORMAT V. 2.0
HETATM    1  C   UNL     1      -0.076   3.664  -1.927  1.00  0.00     0.198 C 
HETATM    2  C   UNL     1       0.376   4.353  -0.634  1.00  0.00     0.180 C 
HETATM    3  C   UNL     1      -0.651   5.415  -0.171  1.00  0.00     0.187 C 
HETATM    4  C   UNL     1      -0.020   6.401   0.849  1.00  0.00     0.183 C 
HETATM    5  C   UNL     1       1.321   5.892   1.384  1.00  0.00     0.204 C 
HETATM    6  C   UNL     1       2.275   5.523   0.220  1.00  0.00     0.292 C 
HETATM    7  O   UNL     1       1.625   4.992  -0.921  1.00  0.00    -0.348 OA
HETATM    8  O   UNL     1       3.229   4.594   0.733  1.00  0.00    -0.348 OA
HETATM    9  C   UNL     1       4.384   4.389  -0.108  1.00  0.00     0.187 C 
HETATM   10  C   UNL     1       4.220   3.085  -0.935  1.00  0.00     0.180 C 
HETATM   11  O   UNL     1       5.436   2.314  -0.967  1.00  0.00    -0.348 OA
HETATM   12  C   UNL     1       5.880   1.856   0.300  1.00  0.00     0.292 C 
HETATM   13  C   UNL     1       5.747   2.908   1.427  1.00  0.00     0.204 C 
HETATM   14  C   UNL     1       5.595   4.315   0.846  1.00  0.00     0.183 C 
HETATM   15  O   UNL     1       6.784   4.728   0.166  1.00  0.00    -0.390 OA
HETATM   16  O   UNL     1       4.648   2.612   2.305  1.00  0.00    -0.388 OA
HETATM   17  O   UNL     1       5.165   0.681   0.689  1.00  0.00    -0.348 OA
HETATM   18  C   UNL     1       5.749  -0.545   0.211  1.00  0.00     0.187 C 
HETATM   19  C   UNL     1       4.698  -1.323  -0.616  1.00  0.00     0.180 C 
HETATM   20  O   UNL     1       5.043  -2.716  -0.649  1.00  0.00    -0.348 OA
HETATM   21  C   UNL     1       4.880  -3.342   0.616  1.00  0.00     0.292 C 
HETATM   22  C   UNL     1       5.201  -2.428   1.829  1.00  0.00     0.204 C 
HETATM   23  C   UNL     1       6.217  -1.353   1.448  1.00  0.00     0.183 C 
HETATM   24  O   UNL     1       7.498  -1.945   1.196  1.00  0.00    -0.390 OA
HETATM   25  O   UNL     1       4.015  -1.796   2.344  1.00  0.00    -0.388 OA
HETATM   26  O   UNL     1       3.533  -3.781   0.772  1.00  0.00    -0.348 OA
HETATM   27  C   UNL     1       3.227  -5.011   0.099  1.00  0.00     0.187 C 
HETATM   28  C   UNL     1       2.089  -4.748  -0.919  1.00  0.00     0.180 C 
HETATM   29  O   UNL     1       1.048  -5.735  -0.817  1.00  0.00    -0.348 OA
HETATM   30  C   UNL     1       0.396  -5.716   0.448  1.00  0.00     0.292 C 
HETATM   31  C   UNL     1       1.373  -5.746   1.652  1.00  0.00     0.204 C 
HETATM   32  C   UNL     1       2.811  -6.014   1.192  1.00  0.00     0.183 C 
HETATM   33  O   UNL     1       2.975  -7.357   0.724  1.00  0.00    -0.390 OA
HETATM   34  O   UNL     1       1.319  -4.535   2.423  1.00  0.00    -0.388 OA
HETATM   35  O   UNL     1      -0.462  -4.569   0.534  1.00  0.00    -0.348 OA
HETATM   36  C   UNL     1      -1.842  -4.881   0.319  1.00  0.00     0.187 C 
HETATM   37  C   UNL     1      -2.480  -4.004  -0.773  1.00  0.00     0.180 C 
HETATM   38  O   UNL     1      -3.873  -4.364  -0.926  1.00  0.00    -0.348 OA
HETATM   39  C   UNL     1      -4.644  -4.149   0.252  1.00  0.00     0.292 C 
HETATM   40  C   UNL     1      -4.071  -4.906   1.466  1.00  0.00     0.204 C 
HETATM   41  C   UNL     1      -2.579  -4.631   1.636  1.00  0.00     0.183 C 
HETATM   42  O   UNL     1      -2.051  -5.493   2.661  1.00  0.00    -0.390 OA
HETATM   43  O   UNL     1      -4.746  -4.539   2.682  1.00  0.00    -0.388 OA
HETATM   44  O   UNL     1      -4.712  -2.764   0.581  1.00  0.00    -0.348 OA
HETATM   45  C   UNL     1      -5.816  -2.064  -0.025  1.00  0.00     0.187 C 
HETATM   46  C   UNL     1      -5.260  -0.992  -0.994  1.00  0.00     0.180 C 
HETATM   47  O   UNL     1      -6.038   0.216  -0.928  1.00  0.00    -0.348 OA
HETATM   48  C   UNL     1      -5.929   0.867   0.335  1.00  0.00     0.292 C 
HETATM   49  C   UNL     1      -6.060  -0.094   1.546  1.00  0.00     0.204 C 
HETATM   50  C   UNL     1      -6.650  -1.438   1.116  1.00  0.00     0.183 C 
HETATM   51  O   UNL     1      -8.016  -1.298   0.714  1.00  0.00    -0.390 OA
HETATM   52  O   UNL     1      -4.796  -0.318   2.196  1.00  0.00    -0.388 OA
HETATM   53  O   UNL     1      -4.666   1.529   0.423  1.00  0.00    -0.348 OA
HETATM   54  C   UNL     1      -4.711   2.928   0.113  1.00  0.00     0.187 C 
HETATM   55  C   UNL     1      -3.660   3.248  -0.962  1.00  0.00     0.180 C 
HETATM   56  O   UNL     1      -3.491   4.671  -1.132  1.00  0.00    -0.348 OA
HETATM   57  C   UNL     1      -3.035   5.310   0.057  1.00  0.00     0.292 C 
HETATM   58  O   UNL     1      -1.775   4.773   0.463  1.00  0.00    -0.348 OA
HETATM   59  C   UNL     1      -4.100   5.149   1.163  1.00  0.00     0.204 C 
HETATM   60  C   UNL     1      -4.383   3.670   1.413  1.00  0.00     0.183 C 
HETATM   61  O   UNL     1      -5.492   3.544   2.325  1.00  0.00    -0.390 OA
HETATM   62  O   UNL     1      -3.738   5.754   2.415  1.00  0.00    -0.388 OA
HETATM   63  C   UNL     1      -4.052   2.638  -2.315  1.00  0.00     0.198 C 
HETATM   64  O   UNL     1      -3.030   2.855  -3.293  1.00  0.00    -0.398 OA
HETATM   65  C   UNL     1      -5.311  -1.516  -2.440  1.00  0.00     0.198 C 
HETATM   66  O   UNL     1      -4.672  -0.612  -3.346  1.00  0.00    -0.398 OA
HETATM   67  C   UNL     1      -1.760  -4.203  -2.115  1.00  0.00     0.198 C 
HETATM   68  O   UNL     1      -2.309  -3.345  -3.121  1.00  0.00    -0.398 OA
HETATM   69  C   UNL     1       2.636  -4.801  -2.355  1.00  0.00     0.198 C 
HETATM   70  O   UNL     1       1.622  -4.455  -3.307  1.00  0.00    -0.398 OA
HETATM   71  C   UNL     1       4.658  -0.804  -2.058  1.00  0.00     0.198 C 
HETATM   72  O   UNL     1       3.565  -1.382  -2.777  1.00  0.00    -0.398 OA
HETATM   73  C   UNL     1       3.896   3.402  -2.410  1.00  0.00     0.198 C 
HETATM   74  O   UNL     1       3.308   2.269  -3.060  1.00  0.00    -0.398 OA
HETATM   75  O   UNL     1       1.087   4.768   2.249  1.00  0.00    -0.388 OA
HETATM   76  O   UNL     1       0.142   7.689   0.238  1.00  0.00    -0.390 OA
HETATM   77  O   UNL     1       0.743   2.521  -2.214  1.00  0.00    -0.398 OA
HETATM   78  H   UNL     1       7.459   4.911   0.843  1.00  0.00     0.210 HD
HETATM   79  H   UNL     1       4.396   1.682   2.113  1.00  0.00     0.210 HD
HETATM   80  H   UNL     1       7.853  -2.241   2.053  1.00  0.00     0.210 HD
HETATM   81  H   UNL     1       3.280  -2.415   2.138  1.00  0.00     0.210 HD
HETATM   82  H   UNL     1       2.842  -7.949   1.485  1.00  0.00     0.210 HD
HETATM   83  H   UNL     1       0.452  -4.132   2.205  1.00  0.00     0.210 HD
HETATM   84  H   UNL     1      -2.649  -5.378   3.427  1.00  0.00     0.210 HD
HETATM   85  H   UNL     1      -4.785  -3.559   2.677  1.00  0.00     0.210 HD
HETATM   86  H   UNL     1      -8.530  -1.054   1.504  1.00  0.00     0.210 HD
HETATM   87  H   UNL     1      -4.222   0.419   1.897  1.00  0.00     0.210 HD
HETATM   88  H   UNL     1      -5.249   4.112   3.085  1.00  0.00     0.210 HD
HETATM   89  H   UNL     1      -3.248   6.574   2.220  1.00  0.00     0.210 HD
HETATM   90  H   UNL     1      -3.313   2.354  -4.079  1.00  0.00     0.209 HD
HETATM   91  H   UNL     1      -4.499  -1.125  -4.154  1.00  0.00     0.209 HD
HETATM   92  H   UNL     1      -1.698  -3.415  -3.876  1.00  0.00     0.209 HD
HETATM   93  H   UNL     1       2.084  -4.331  -4.151  1.00  0.00     0.209 HD
HETATM   94  H   UNL     1       3.394  -0.778  -3.521  1.00  0.00     0.209 HD
HETATM   95  H   UNL     1       2.403   2.209  -2.680  1.00  0.00     0.209 HD
HETATM   96  H   UNL     1       1.906   4.228   2.210  1.00  0.00     0.210 HD
HETATM   97  H   UNL     1       0.394   8.316   0.939  1.00  0.00     0.210 HD
HETATM   98  H   UNL     1       0.207   1.977  -2.824  1.00  0.00     0.209 HD
