REMARK  Name = 
REMARK  63 active torsions:
REMARK  status: ('A' for Active; 'I' for Inactive)
REMARK    1  A    between atoms: O_1  and  C_2
REMARK    2  A    between atoms: C_4  and  C_5
REMARK    3  A    between atoms: C_5  and  O_6
REMARK    4  A    between atoms: O_6  and  C_7
REMARK    5  A    between atoms: C_7  and  C_8
REMARK    6  A    between atoms: C_8  and  C_9
REMARK    7  A    between atoms: C_9  and  C_10
REMARK    8  A    between atoms: C_10  and  S_11
REMARK    9  A    between atoms: C_19  and  O_20
REMARK   10  A    between atoms: C_21  and  O_22
REMARK   11  A    between atoms: C_26  and  O_27
REMARK   12  A    between atoms: C_28  and  O_29
REMARK   13  A    between atoms: C_33  and  O_34
REMARK   14  A    between atoms: C_35  and  O_36
REMARK   15  A    between atoms: C_40  and  O_41
REMARK   16  A    between atoms: C_42  and  O_43
REMARK   17  A    between atoms: C_47  and  O_48
REMARK   18  A    between atoms: C_49  and  O_50
REMARK   19  A    between atoms: C_54  and  O_55
REMARK   20  A    between atoms: C_56  and  O_57
REMARK   21  A    between atoms: C_61  and  C_62
REMARK   22  A    between atoms: C_62  and  O_63
REMARK   23  A    between atoms: O_63  and  C_64
REMARK   24  A    between atoms: C_64  and  C_65
REMARK   25  A    between atoms: C_65  and  C_66
REMARK   26  A    between atoms: C_66  and  C_67
REMARK   27  A    between atoms: C_67  and  S_68
REMARK   28  A    between atoms: C_73  and  C_74
REMARK   29  A    between atoms: C_74  and  O_75
REMARK   30  A    between atoms: O_75  and  C_76
REMARK   31  A    between atoms: C_76  and  C_77
REMARK   32  A    between atoms: C_77  and  C_78
REMARK   33  A    between atoms: C_78  and  C_79
REMARK   34  A    between atoms: C_79  and  S_80
REMARK   35  A    between atoms: C_85  and  C_86
REMARK   36  A    between atoms: C_86  and  O_87
REMARK   37  A    between atoms: O_87  and  C_88
REMARK   38  A    between atoms: C_88  and  C_89
REMARK   39  A    between atoms: C_89  and  C_90
REMARK   40  A    between atoms: C_90  and  C_91
REMARK   41  A    between atoms: C_91  and  S_92
REMARK   42  A    between atoms: C_97  and  C_98
REMARK   43  A    between atoms: C_98  and  O_99
REMARK   44  A    between atoms: O_99  and  C_100
REMARK   45  A    between atoms: C_100  and  C_101
REMARK   46  A    between atoms: C_101  and  C_102
REMARK   47  A    between atoms: C_102  and  C_103
REMARK   48  A    between atoms: C_103  and  S_104
REMARK   49  A    between atoms: C_109  and  C_110
REMARK   50  A    between atoms: C_110  and  O_111
REMARK   51  A    between atoms: O_111  and  C_112
REMARK   52  A    between atoms: C_112  and  C_113
REMARK   53  A    between atoms: C_113  and  C_114
REMARK   54  A    between atoms: C_114  and  C_115
REMARK   55  A    between atoms: C_115  and  S_116
REMARK   56  A    between atoms: C_121  and  C_122
REMARK   57  A    between atoms: C_122  and  O_123
REMARK   58  A    between atoms: O_123  and  C_124
REMARK   59  A    between atoms: C_124  and  C_125
REMARK   60  A    between atoms: C_125  and  C_126
REMARK   61  A    between atoms: C_126  and  C_127
REMARK   62  A    between atoms: C_127  and  S_128
REMARK   63  A    between atoms: C_132  and  O_133
REMARK                            x       y       z     vdW  Elec       q    Type
REMARK                         _______ _______ _______ _____ _____    ______ ____
ROOT
ATOM      1  C   UNL     1       3.354  -3.633  -0.792  0.00  0.00    +0.000 C 
ATOM      2  C   UNL     1       3.809  -2.663  -1.911  0.00  0.00    +0.000 C 
ATOM      3  C   UNL     1       2.629  -1.624  -2.007  0.00  0.00    +0.000 C 
ATOM      4  O   UNL     1       1.305  -2.190  -1.968  0.00  0.00    +0.000 OA
ATOM      5  C   UNL     1       1.208  -3.566  -2.235  0.00  0.00    +0.000 C 
ATOM      6  O   UNL     1       1.480  -3.771  -3.624  0.00  0.00    +0.000 OA
ATOM      7  C   UNL     1       0.371  -4.020  -4.497  0.00  0.00    +0.000 C 
ATOM      8  C   UNL     1       0.973  -4.211  -5.893  0.00  0.00    +0.000 C 
ATOM      9  C   UNL     1       1.565  -2.890  -6.387  0.00  0.00    +0.000 C 
ATOM     10  C   UNL     1       0.735  -1.598  -6.106  0.00  0.00    +0.000 C 
ATOM     11  O   UNL     1       0.179  -1.023  -7.298  0.00  0.00    +0.000 OA
ATOM     12  C   UNL     1       0.837   0.131  -7.889  0.00  0.00    +0.000 C 
ATOM     13  C   UNL     1       2.219  -0.108  -8.520  0.00  0.00    +0.000 C 
ATOM     14  C   UNL     1       3.370  -0.030  -7.505  0.00  0.00    +0.000 C 
ATOM     15  C   UNL     1       3.268   1.168  -6.509  0.00  0.00    +0.000 C 
ATOM     16  O   UNL     1       3.856   2.378  -6.989  0.00  0.00    +0.000 OA
ATOM     17  C   UNL     1       4.991   2.951  -6.283  0.00  0.00    +0.000 C 
ATOM     18  C   UNL     1       6.304   2.235  -6.629  0.00  0.00    +0.000 C 
ATOM     19  C   UNL     1       6.561   1.004  -5.756  0.00  0.00    +0.000 C 
ATOM     20  C   UNL     1       6.161   1.118  -4.258  0.00  0.00    +0.000 C 
ATOM     21  O   UNL     1       7.217   1.464  -3.346  0.00  0.00    +0.000 OA
ATOM     22  C   UNL     1       7.622   0.375  -2.488  0.00  0.00    +0.000 C 
ATOM     23  C   UNL     1       8.829  -0.368  -3.103  0.00  0.00    +0.000 C 
ATOM     24  C   UNL     1       9.443  -1.429  -2.160  0.00  0.00    +0.000 C 
ATOM     25  C   UNL     1       8.611  -1.606  -0.874  0.00  0.00    +0.000 C 
ATOM     26  O   UNL     1       9.303  -2.466   0.045  0.00  0.00    +0.000 OA
ATOM     27  C   UNL     1       8.871  -3.805   0.326  0.00  0.00    +0.000 C 
ATOM     28  C   UNL     1       9.442  -4.815  -0.711  0.00  0.00    +0.000 C 
ATOM     29  C   UNL     1       8.357  -5.661  -1.393  0.00  0.00    +0.000 C 
ATOM     30  C   UNL     1       7.194  -4.720  -1.725  0.00  0.00    +0.000 C 
ATOM     31  O   UNL     1       6.208  -5.317  -2.565  0.00  0.00    +0.000 OA
ATOM     32  C   UNL     1       6.465  -5.326  -3.975  0.00  0.00    +0.000 C 
ATOM     33  C   UNL     1       7.095  -4.046  -4.533  0.00  0.00    +0.000 C 
ATOM     34  C   UNL     1       6.162  -2.846  -4.269  0.00  0.00    +0.000 C 
ATOM     35  C   UNL     1       4.663  -3.218  -4.226  0.00  0.00    +0.000 C 
ATOM     36  O   UNL     1       4.128  -3.579  -2.977  0.00  0.00    +0.000 OA
ATOM     37  O   UNL     1       4.456  -4.318  -5.125  0.00  0.00    +0.000 OA
ATOM     38  C   UNL     1       5.170  -5.535  -4.813  0.00  0.00    +0.000 C 
ATOM     39  O   UNL     1       6.580  -4.114  -0.599  0.00  0.00    +0.000 OA
ATOM     40  C   UNL     1       7.370  -4.045   0.597  0.00  0.00    +0.000 C 
ATOM     41  O   UNL     1       8.451  -0.347  -0.238  0.00  0.00    +0.000 OA
ATOM     42  C   UNL     1       8.016   0.783  -1.051  0.00  0.00    +0.000 C 
ATOM     43  O   UNL     1       4.984   1.891  -4.053  0.00  0.00    +0.000 OA
ATOM     44  C   UNL     1       4.934   3.150  -4.748  0.00  0.00    +0.000 C 
ATOM     45  O   UNL     1       1.935   1.357  -6.047  0.00  0.00    +0.000 OA
ATOM     46  C   UNL     1       0.904   1.425  -7.041  0.00  0.00    +0.000 C 
ATOM     47  O   UNL     1      -0.222  -1.668  -5.047  0.00  0.00    +0.000 OA
ATOM     48  C   UNL     1      -0.740  -2.945  -4.680  0.00  0.00    +0.000 C 
ATOM     49  C   UNL     1       2.119  -4.414  -1.306  0.00  0.00    +0.000 C 
ENDROOT
BRANCH  24  50
ATOM     50  O   UNL     1      10.811  -1.085  -1.845  0.00  0.00    +0.000 OA
ATOM     51  H   UNL     1      10.751  -0.169  -1.496  0.00  0.00    +0.000 HD
ENDBRANCH  24  50
BRANCH  28  52
ATOM     52  O   UNL     1      10.391  -5.722  -0.115  0.00  0.00    +0.000 OA
ATOM     53  H   UNL     1       9.925  -6.134   0.637  0.00  0.00    +0.000 HD
ENDBRANCH  28  52
BRANCH  29  54
ATOM     54  O   UNL     1       7.966  -6.748  -0.539  0.00  0.00    +0.000 OA
ATOM     55  H   UNL     1       8.583  -7.479  -0.714  0.00  0.00    +0.000 HD
ENDBRANCH  29  54
BRANCH  33  56
ATOM     56  O   UNL     1       7.369  -4.175  -5.943  0.00  0.00    +0.000 OA
ATOM     57  H   UNL     1       8.037  -4.865  -6.080  0.00  0.00    +0.000 HD
ENDBRANCH  33  56
BRANCH  34  58
ATOM     58  O   UNL     1       6.430  -1.922  -5.330  0.00  0.00    +0.000 OA
ATOM     59  H   UNL     1       6.367  -2.459  -6.154  0.00  0.00    +0.000 HD
ENDBRANCH  34  58
BRANCH  49  60
ATOM     60  O   UNL     1       1.356  -4.968  -0.223  0.00  0.00    +0.000 OA
ATOM     61  H   UNL     1       1.950  -5.469   0.352  0.00  0.00    +0.000 HD
ENDBRANCH  49  60
BRANCH   1  62
ATOM     62  O   UNL     1       3.074  -2.951   0.427  0.00  0.00    +0.000 OA
ATOM     63  H   UNL     1       3.751  -3.178   1.093  0.00  0.00    +0.000 HD
ENDBRANCH   1  62
BRANCH   8  64
ATOM     64  O   UNL     1       0.000  -4.757  -6.802  0.00  0.00    +0.000 OA
ATOM     65  H   UNL     1      -0.051  -5.703  -6.597  0.00  0.00    +0.000 HD
ENDBRANCH   8  64
BRANCH   9  66
ATOM     66  O   UNL     1       1.973  -3.020  -7.749  0.00  0.00    +0.000 OA
ATOM     67  H   UNL     1       2.945  -3.170  -7.784  0.00  0.00    +0.000 HD
ENDBRANCH   9  66
BRANCH  13  68
ATOM     68  O   UNL     1       2.456   0.872  -9.562  0.00  0.00    +0.000 OA
ATOM     69  H   UNL     1       3.428   0.895  -9.659  0.00  0.00    +0.000 HD
ENDBRANCH  13  68
BRANCH  14  70
ATOM     70  O   UNL     1       4.629  -0.114  -8.209  0.00  0.00    +0.000 OA
ATOM     71  H   UNL     1       4.651  -1.029  -8.574  0.00  0.00    +0.000 HD
ENDBRANCH  14  70
BRANCH  18  72
ATOM     72  O   UNL     1       7.434   3.127  -6.549  0.00  0.00    +0.000 OA
ATOM     73  H   UNL     1       8.138   2.619  -6.097  0.00  0.00    +0.000 HD
ENDBRANCH  18  72
BRANCH  19  74
ATOM     74  O   UNL     1       7.909   0.540  -5.983  0.00  0.00    +0.000 OA
ATOM     75  H   UNL     1       7.840  -0.003  -6.789  0.00  0.00    +0.000 HD
ENDBRANCH  19  74
BRANCH  23  76
ATOM     76  O   UNL     1       9.861   0.561  -3.479  0.00  0.00    +0.000 OA
ATOM     77  H   UNL     1      10.352   0.152  -4.208  0.00  0.00    +0.000 HD
ENDBRANCH  23  76
BRANCH   3  78
ATOM     78  C   UNL     1       2.703  -0.601  -3.134  0.00  0.00    +0.000 C 
BRANCH  78  79
ATOM     79  O   UNL     1       1.545   0.229  -3.180  0.00  0.00    +0.000 OA
BRANCH  79  80
ATOM     80  C   UNL     1       1.587   1.390  -2.341  0.00  0.00    +0.000 C 
BRANCH  80  81
ATOM     81  C   UNL     1       0.295   1.530  -1.527  0.00  0.00    +0.000 C 
BRANCH  81  82
ATOM     82  C   UNL     1      -0.961   1.572  -2.402  0.00  0.00    +0.000 C 
BRANCH  82  83
ATOM     83  C   UNL     1      -2.285   1.420  -1.656  0.00  0.00    +0.000 C 
BRANCH  83  84
ATOM     84  S   UNL     1      -2.804   2.715  -0.567  0.00  0.00    +0.000 S 
ATOM     85  O   UNL     1      -1.923   2.588   0.596  0.00  0.00    +0.000 OA
ATOM     86  O   UNL     1      -2.703   3.931  -1.361  0.00  0.00    +0.000 OA
ATOM     87  O   UNL     1      -4.196   2.353  -0.261  0.00  0.00    +0.000 OA
ENDBRANCH  83  84
ENDBRANCH  82  83
ENDBRANCH  81  82
ENDBRANCH  80  81
ENDBRANCH  79  80
ENDBRANCH  78  79
ENDBRANCH   3  78
BRANCH  38  88
ATOM     88  C   UNL     1       4.212  -6.608  -4.280  0.00  0.00    +0.000 C 
BRANCH  88  89
ATOM     89  O   UNL     1       3.249  -6.999  -5.278  0.00  0.00    +0.000 OA
BRANCH  89  90
ATOM     90  C   UNL     1       3.735  -7.901  -6.266  0.00  0.00    +0.000 C 
BRANCH  90  91
ATOM     91  C   UNL     1       3.286  -7.452  -7.661  0.00  0.00    +0.000 C 
BRANCH  91  92
ATOM     92  C   UNL     1       4.008  -6.180  -8.123  0.00  0.00    +0.000 C 
BRANCH  92  93
ATOM     93  C   UNL     1       3.507  -5.683  -9.474  0.00  0.00    +0.000 C 
BRANCH  93  94
ATOM     94  S   UNL     1       4.251  -4.130  -9.987  0.00  0.00    +0.000 S 
ATOM     95  O   UNL     1       5.522  -4.552 -10.578  0.00  0.00    +0.000 OA
ATOM     96  O   UNL     1       3.293  -3.604 -10.955  0.00  0.00    +0.000 OA
ATOM     97  O   UNL     1       4.393  -3.330  -8.766  0.00  0.00    +0.000 OA
ENDBRANCH  93  94
ENDBRANCH  92  93
ENDBRANCH  91  92
ENDBRANCH  90  91
ENDBRANCH  89  90
ENDBRANCH  88  89
ENDBRANCH  38  88
BRANCH  42  98
ATOM     98  C   UNL     1       6.879   1.521  -0.313  0.00  0.00    +0.000 C 
BRANCH  98  99
ATOM     99  O   UNL     1       7.028   1.530   1.115  0.00  0.00    +0.000 OA
BRANCH  99 100
ATOM    100  C   UNL     1       8.245   2.029   1.650  0.00  0.00    +0.000 C 
BRANCH 100 101
ATOM    101  C   UNL     1       8.580   3.471   1.290  0.00  0.00    +0.000 C 
BRANCH 101 102
ATOM    102  C   UNL     1       7.527   4.452   1.802  0.00  0.00    +0.000 C 
BRANCH 102 103
ATOM    103  C   UNL     1       7.783   5.899   1.396  0.00  0.00    +0.000 C 
BRANCH 103 104
ATOM    104  S   UNL     1       7.883   6.223  -0.364  0.00  0.00    +0.000 S 
ATOM    105  O   UNL     1       9.329   6.090  -0.628  0.00  0.00    +0.000 OA
ATOM    106  O   UNL     1       7.071   5.204  -1.002  0.00  0.00    +0.000 OA
ATOM    107  O   UNL     1       7.403   7.595  -0.487  0.00  0.00    +0.000 OA
ENDBRANCH 103 104
ENDBRANCH 102 103
ENDBRANCH 101 102
ENDBRANCH 100 101
ENDBRANCH  99 100
ENDBRANCH  98  99
ENDBRANCH  42  98
BRANCH  44 108
ATOM    108  C   UNL     1       3.690   3.952  -4.333  0.00  0.00    +0.000 C 
BRANCH 108 109
ATOM    109  O   UNL     1       3.836   4.339  -2.968  0.00  0.00    +0.000 OA
BRANCH 109 110
ATOM    110  C   UNL     1       4.285   5.678  -2.784  0.00  0.00    +0.000 C 
BRANCH 110 111
ATOM    111  C   UNL     1       3.119   6.665  -2.698  0.00  0.00    +0.000 C 
BRANCH 111 112
ATOM    112  C   UNL     1       2.140   6.347  -1.553  0.00  0.00    +0.000 C 
BRANCH 112 113
ATOM    113  C   UNL     1       2.750   6.606  -0.175  0.00  0.00    +0.000 C 
BRANCH 113 114
ATOM    114  S   UNL     1       1.959   5.788   1.197  0.00  0.00    +0.000 S 
ATOM    115  O   UNL     1       0.548   6.138   1.075  0.00  0.00    +0.000 OA
ATOM    116  O   UNL     1       2.311   4.380   1.033  0.00  0.00    +0.000 OA
ATOM    117  O   UNL     1       2.595   6.420   2.362  0.00  0.00    +0.000 OA
ENDBRANCH 113 114
ENDBRANCH 112 113
ENDBRANCH 111 112
ENDBRANCH 110 111
ENDBRANCH 109 110
ENDBRANCH 108 109
ENDBRANCH  44 108
BRANCH  40 118
ATOM    118  C   UNL     1       6.750  -3.025   1.566  0.00  0.00    +0.000 C 
BRANCH 118 119
ATOM    119  O   UNL     1       5.424  -3.433   1.923  0.00  0.00    +0.000 OA
BRANCH 119 120
ATOM    120  C   UNL     1       5.321  -4.323   3.030  0.00  0.00    +0.000 C 
BRANCH 120 121
ATOM    121  C   UNL     1       5.612  -3.644   4.368  0.00  0.00    +0.000 C 
BRANCH 121 122
ATOM    122  C   UNL     1       5.183  -4.539   5.531  0.00  0.00    +0.000 C 
BRANCH 122 123
ATOM    123  C   UNL     1       5.505  -4.002   6.922  0.00  0.00    +0.000 C 
BRANCH 123 124
ATOM    124  S   UNL     1       4.795  -2.440   7.355  0.00  0.00    +0.000 S 
ATOM    125  O   UNL     1       3.453  -2.508   6.792  0.00  0.00    +0.000 OA
ATOM    126  O   UNL     1       4.841  -2.473   8.819  0.00  0.00    +0.000 OA
ATOM    127  O   UNL     1       5.721  -1.488   6.749  0.00  0.00    +0.000 OA
ENDBRANCH 123 124
ENDBRANCH 122 123
ENDBRANCH 121 122
ENDBRANCH 120 121
ENDBRANCH 119 120
ENDBRANCH 118 119
ENDBRANCH  40 118
BRANCH  46 128
ATOM    128  C   UNL     1      -0.457   1.695  -6.372  0.00  0.00    +0.000 C 
BRANCH 128 129
ATOM    129  O   UNL     1      -0.767   3.091  -6.348  0.00  0.00    +0.000 OA
BRANCH 129 130
ATOM    130  C   UNL     1      -1.408   3.572  -7.511  0.00  0.00    +0.000 C 
BRANCH 130 131
ATOM    131  C   UNL     1      -1.644   5.074  -7.398  0.00  0.00    +0.000 C 
BRANCH 131 132
ATOM    132  C   UNL     1      -2.692   5.481  -6.352  0.00  0.00    +0.000 C 
BRANCH 132 133
ATOM    133  C   UNL     1      -2.294   5.353  -4.878  0.00  0.00    +0.000 C 
BRANCH 133 134
ATOM    134  S   UNL     1      -0.882   6.379  -4.440  0.00  0.00    +0.000 S 
ATOM    135  O   UNL     1      -1.247   6.961  -3.153  0.00  0.00    +0.000 OA
ATOM    136  O   UNL     1       0.253   5.465  -4.463  0.00  0.00    +0.000 OA
ATOM    137  O   UNL     1      -0.831   7.398  -5.500  0.00  0.00    +0.000 OA
ENDBRANCH 133 134
ENDBRANCH 132 133
ENDBRANCH 131 132
ENDBRANCH 130 131
ENDBRANCH 129 130
ENDBRANCH 128 129
ENDBRANCH  46 128
BRANCH  48 138
ATOM    138  C   UNL     1      -1.631  -2.831  -3.422  0.00  0.00    +0.000 C 
BRANCH 138 139
ATOM    139  O   UNL     1      -3.037  -2.670  -3.652  0.00  0.00    +0.000 OA
BRANCH 139 140
ATOM    140  C   UNL     1      -3.737  -3.698  -4.334  0.00  0.00    +0.000 C 
BRANCH 140 141
ATOM    141  C   UNL     1      -3.371  -5.160  -4.047  0.00  0.00    +0.000 C 
BRANCH 141 142
ATOM    142  C   UNL     1      -3.538  -5.639  -2.588  0.00  0.00    +0.000 C 
BRANCH 142 143
ATOM    143  C   UNL     1      -3.017  -7.072  -2.469  0.00  0.00    +0.000 C 
BRANCH 143 144
ATOM    144  S   UNL     1      -2.853  -7.704  -0.813  0.00  0.00    +0.000 S 
ATOM    145  O   UNL     1      -1.858  -6.876  -0.189  0.00  0.00    +0.000 OA
ATOM    146  O   UNL     1      -4.217  -7.605  -0.274  0.00  0.00    +0.000 OA
ATOM    147  O   UNL     1      -2.429  -9.100  -1.049  0.00  0.00    +0.000 OA
ENDBRANCH 143 144
ENDBRANCH 142 143
ENDBRANCH 141 142
ENDBRANCH 140 141
ENDBRANCH 139 140
ENDBRANCH 138 139
ENDBRANCH  48 138
TORSDOF 63
