REMARK  Name = 969516
REMARK  12 active torsions:
REMARK  status: ('A' for Active; 'I' for Inactive)
REMARK    1  A    between atoms: O_1  and  C_12
REMARK    2  A    between atoms: O_1  and  C_26
REMARK    3  A    between atoms: O_2  and  C_13
REMARK    4  A    between atoms: O_2  and  C_27
REMARK    5  A    between atoms: O_3  and  C_18
REMARK    6  A    between atoms: O_4  and  C_19
REMARK    7  A    between atoms: C_7  and  C_16
REMARK    8  A    between atoms: C_8  and  C_17
REMARK    9  A    between atoms: C_9  and  C_20
REMARK   10  A    between atoms: C_9  and  C_21
REMARK   11  A    between atoms: C_20  and  C_24
REMARK   12  A    between atoms: C_21  and  C_25
REMARK                            x       y       z     vdW  Elec       q    Type
REMARK                         _______ _______ _______ _____ _____    ______ ____
ROOT
ATOM      1  C   UNL     1       0.017   2.886   0.585  0.00  0.00    +0.000 C 
ENDROOT
BRANCH   1   3
ATOM      2  O   UNL     1       2.147   3.909   0.258  0.00  0.00    +0.000 OA
ATOM      3  C   UNL     1       1.475   2.878   0.201  0.00  0.00    +0.000 C 
BRANCH   3   5
ATOM      4  C   UNL     1       3.454   1.446  -0.054  0.00  0.00    +0.000 C 
ATOM      5  C   UNL     1       2.117   1.560  -0.081  0.00  0.00    +0.000 C 
BRANCH   4   6
ATOM      6  C   UNL     1       4.187   0.184  -0.241  0.00  0.00    +0.000 A 
ATOM      7  C   UNL     1       5.442   0.045   0.382  0.00  0.00    +0.000 A 
ATOM      8  C   UNL     1       6.187  -1.126   0.230  0.00  0.00    +0.000 A 
ATOM      9  C   UNL     1       3.703  -0.861  -1.042  0.00  0.00    +0.000 A 
ATOM     10  C   UNL     1       5.667  -2.157  -0.558  0.00  0.00    +0.000 A 
ATOM     11  C   UNL     1       4.440  -2.036  -1.195  0.00  0.00    +0.000 A 
BRANCH   8  12
ATOM     12  O   UNL     1       7.413  -1.385   0.788  0.00  0.00    +0.000 OA
ATOM     13  C   UNL     1       7.987  -0.348   1.575  0.00  0.00    +0.000 C 
ENDBRANCH   8  12
BRANCH  10  14
ATOM     14  O   UNL     1       6.371  -3.319  -0.725  0.00  0.00    +0.000 OA
ATOM     15  H   UNL     1       7.194  -3.190  -0.214  0.00  0.00    +0.000 HD
ENDBRANCH  10  14
ENDBRANCH   4   6
ENDBRANCH   3   5
ENDBRANCH   1   3
BRANCH   1  17
ATOM     16  O   UNL     1      -0.656   1.906  -1.501  0.00  0.00    +0.000 OA
ATOM     17  C   UNL     1      -0.887   2.076  -0.306  0.00  0.00    +0.000 C 
BRANCH  17  19
ATOM     18  C   UNL     1      -2.917   0.695  -0.372  0.00  0.00    +0.000 C 
ATOM     19  C   UNL     1      -2.093   1.479   0.339  0.00  0.00    +0.000 C 
BRANCH  18  20
ATOM     20  C   UNL     1      -4.113   0.032   0.171  0.00  0.00    +0.000 A 
ATOM     21  C   UNL     1      -5.190  -0.227  -0.693  0.00  0.00    +0.000 A 
ATOM     22  C   UNL     1      -6.336  -0.891  -0.239  0.00  0.00    +0.000 A 
ATOM     23  C   UNL     1      -4.187  -0.409   1.499  0.00  0.00    +0.000 A 
ATOM     24  C   UNL     1      -6.390  -1.303   1.099  0.00  0.00    +0.000 A 
ATOM     25  C   UNL     1      -5.325  -1.068   1.966  0.00  0.00    +0.000 A 
BRANCH  22  26
ATOM     26  O   UNL     1      -7.433  -1.182  -1.006  0.00  0.00    +0.000 OA
ATOM     27  C   UNL     1      -7.393  -0.819  -2.378  0.00  0.00    +0.000 C 
ENDBRANCH  22  26
BRANCH  24  28
ATOM     28  O   UNL     1      -7.506  -1.952   1.554  0.00  0.00    +0.000 OA
ATOM     29  H   UNL     1      -7.387  -2.176   2.490  0.00  0.00    +0.000 HD
ENDBRANCH  24  28
ENDBRANCH  18  20
ENDBRANCH  17  19
ENDBRANCH   1  17
TORSDOF 10
